TITEL   ="............."
VARIABLES = "x", "r"
ZONE T="CNET",          I = 281,   J = 21 F=POINT
#  k=0
0.000000  0.213835 
0.002809  0.214441 
0.005617  0.215078 
0.008426  0.215738 
0.011234  0.216415 
0.014043  0.217102 
0.016851  0.217792 
0.019660  0.218478 
0.022468  0.219154 
0.025277  0.219813 
0.028086  0.220447 
0.030894  0.221051 
0.033703  0.221617 
0.036511  0.222138 
0.039320  0.222608 
0.042128  0.223019 
0.044937  0.223366 
0.047746  0.223641 
0.050554  0.223846 
0.053363  0.223986 
0.056171  0.224068 
0.058980  0.224098 
0.061788  0.224082 
0.064597  0.224026 
0.067405  0.223937 
0.070214  0.223820 
0.073023  0.223682 
0.075831  0.223530 
0.078640  0.223368 
0.081448  0.223205 
0.084257  0.223044 
0.087065  0.222889 
0.089874  0.222736 
0.092683  0.222581 
0.095491  0.222419 
0.098300  0.222247 
0.101108  0.222061 
0.103917  0.221857 
0.106725  0.221632 
0.109534  0.221380 
0.112342  0.221098 
0.115151  0.220782 
0.117960  0.220429 
0.120768  0.220033 
0.123577  0.219592 
0.126385  0.219102 
0.129194  0.218559 
0.132002  0.217968 
0.134811  0.217340 
0.137620  0.216683 
0.140428  0.216006 
0.143237  0.215317 
0.146045  0.214627 
0.148854  0.213944 
0.151662  0.213277 
0.154471  0.212634 
0.157279  0.212026 
0.160088  0.211461 
0.162896  0.210948 
0.165705  0.210496 
0.168514  0.210114 
0.171322  0.209811 
0.174131  0.209596 
0.176939  0.209478 
0.179748  0.209460 
0.182557  0.209540 
0.185365  0.209713 
0.188174  0.209975 
0.190982  0.210323 
0.193791  0.210752 
0.196599  0.211259 
0.199408  0.211839 
0.202216  0.212488 
0.205025  0.213203 
0.207834  0.213980 
0.210642  0.214815 
0.213451  0.215703 
0.216259  0.216641 
0.219068  0.217625 
0.221876  0.218651 
0.224685  0.219715 
0.227493  0.220813 
0.230302  0.221941 
0.233110  0.223095 
0.235919  0.224272 
0.238728  0.225466 
0.241536  0.226675 
0.244345  0.227895 
0.247153  0.229122 
0.249962  0.230357 
0.252771  0.231598 
0.255579  0.232846 
0.258388  0.234099 
0.261196  0.235358 
0.264005  0.236622 
0.266813  0.237890 
0.269622  0.239161 
0.272430  0.240437 
0.275239  0.241715 
0.278048  0.242996 
0.280856  0.244279 
0.283665  0.245563 
0.286473  0.246849 
0.289282  0.248135 
0.292090  0.249421 
0.294899  0.250706 
0.297707  0.251991 
0.300516  0.253275 
0.303325  0.254556 
0.306133  0.255836 
0.308942  0.257113 
0.311750  0.258386 
0.314559  0.259656 
0.317367  0.260921 
0.320176  0.262182 
0.322985  0.263438 
0.325793  0.264688 
0.328602  0.265932 
0.331410  0.267169 
0.334219  0.268400 
0.337027  0.269623 
0.339836  0.270838 
0.342644  0.272044 
0.345453  0.273241 
0.348262  0.274429 
0.351070  0.275608 
0.353879  0.276775 
0.356687  0.277932 
0.359496  0.279078 
0.362304  0.280211 
0.365113  0.281333 
0.367922  0.282441 
0.370730  0.283537 
0.373539  0.284618 
0.376347  0.285686 
0.379156  0.286739 
0.381964  0.287776 
0.384773  0.288798 
0.387581  0.289804 
0.390390  0.290794 
0.393199  0.291766 
0.396007  0.292721 
0.398816  0.293658 
0.401624  0.294576 
0.404433  0.295475 
0.407241  0.296355 
0.410050  0.297215 
0.412859  0.298054 
0.415667  0.298873 
0.418476  0.299671 
0.421284  0.300446 
0.424093  0.301199 
0.426901  0.301930 
0.429710  0.302637 
0.432518  0.303320 
0.435327  0.303980 
0.438136  0.304614 
0.440944  0.305224 
0.443753  0.305810 
0.446561  0.306372 
0.449370  0.306912 
0.452178  0.307431 
0.454987  0.307930 
0.457795  0.308409 
0.460604  0.308869 
0.463413  0.309311 
0.466221  0.309737 
0.469030  0.310146 
0.471838  0.310540 
0.474647  0.310920 
0.477455  0.311287 
0.480264  0.311641 
0.483073  0.311984 
0.485881  0.312316 
0.488690  0.312638 
0.491498  0.312949 
0.494307  0.313250 
0.497115  0.313539 
0.499924  0.313817 
0.502732  0.314082 
0.505541  0.314334 
0.508350  0.314573 
0.511158  0.314798 
0.513967  0.315009 
0.516775  0.315205 
0.519584  0.315386 
0.522392  0.315552 
0.525201  0.315701 
0.528009  0.315833 
0.530818  0.315950 
0.533627  0.316049 
0.536435  0.316132 
0.539244  0.316198 
0.542052  0.316247 
0.544861  0.316279 
0.547669  0.316295 
0.550478  0.316293 
0.553287  0.316275 
0.556095  0.316239 
0.558904  0.316187 
0.561712  0.316117 
0.564521  0.316030 
0.567329  0.315927 
0.570138  0.315808 
0.572946  0.315674 
0.575755  0.315525 
0.578564  0.315361 
0.581372  0.315184 
0.584181  0.314993 
0.586989  0.314789 
0.589798  0.314572 
0.592606  0.314344 
0.595415  0.314104 
0.598223  0.313853 
0.601032  0.313591 
0.603841  0.313320 
0.606649  0.313039 
0.609458  0.312749 
0.612266  0.312450 
0.615075  0.312140 
0.617883  0.311819 
0.620692  0.311484 
0.623501  0.311133 
0.626309  0.310765 
0.629118  0.310379 
0.631926  0.309971 
0.634735  0.309541 
0.637543  0.309087 
0.640352  0.308607 
0.643161  0.308099 
0.645969  0.307562 
0.648778  0.306994 
0.651586  0.306393 
0.654395  0.305758 
0.657203  0.305086 
0.660012  0.304377 
0.662820  0.303635 
0.665629  0.302861 
0.668438  0.302059 
0.671246  0.301231 
0.674055  0.300381 
0.676863  0.299510 
0.679672  0.298622 
0.682480  0.297720 
0.685289  0.296806 
0.688097  0.295883 
0.690906  0.294954 
0.693715  0.294022 
0.696523  0.293090 
0.699332  0.292160 
0.702140  0.291235 
0.704949  0.290318 
0.707757  0.289412 
0.710566  0.288519 
0.713374  0.287643 
0.716183  0.286786 
0.718992  0.285950 
0.721800  0.285133 
0.724609  0.284336 
0.727417  0.283557 
0.730226  0.282795 
0.733034  0.282050 
0.735843  0.281321 
0.738652  0.280607 
0.741460  0.279906 
0.744269  0.279219 
0.747077  0.278545 
0.749886  0.277882 
0.752694  0.277230 
0.755503  0.276588 
0.758312  0.275955 
0.761120  0.275330 
0.763929  0.274713 
0.766737  0.274102 
0.769546  0.273497 
0.772354  0.272898 
0.775163  0.272302 
0.777971  0.271710 
0.780780  0.271120 
0.783589  0.270531 
0.786397  0.269944 
#  k=1
0.000000  0.216585 
0.002809  0.217134 
0.005617  0.217711 
0.008426  0.218309 
0.011234  0.218922 
0.014043  0.219544 
0.016851  0.220169 
0.019660  0.220790 
0.022468  0.221402 
0.025277  0.221998 
0.028086  0.222573 
0.030894  0.223121 
0.033703  0.223634 
0.036511  0.224107 
0.039320  0.224535 
0.042128  0.224910 
0.044937  0.225227 
0.047746  0.225480 
0.050554  0.225670 
0.053363  0.225803 
0.056171  0.225883 
0.058980  0.225917 
0.061788  0.225909 
0.064597  0.225867 
0.067405  0.225794 
0.070214  0.225697 
0.073023  0.225582 
0.075831  0.225453 
0.078640  0.225317 
0.081448  0.225179 
0.084257  0.225044 
0.087065  0.224914 
0.089874  0.224786 
0.092683  0.224656 
0.095491  0.224520 
0.098300  0.224375 
0.101108  0.224217 
0.103917  0.224041 
0.106725  0.223846 
0.109534  0.223626 
0.112342  0.223378 
0.115151  0.223099 
0.117960  0.222784 
0.120768  0.222431 
0.123577  0.222035 
0.126385  0.221592 
0.129194  0.221100 
0.132002  0.220565 
0.134811  0.219995 
0.137620  0.219398 
0.140428  0.218783 
0.143237  0.218158 
0.146045  0.217533 
0.148854  0.216915 
0.151662  0.216313 
0.154471  0.215737 
0.157279  0.215193 
0.160088  0.214692 
0.162896  0.214241 
0.165705  0.213849 
0.168514  0.213525 
0.171322  0.213277 
0.174131  0.213114 
0.176939  0.213044 
0.179748  0.213071 
0.182557  0.213192 
0.185365  0.213402 
0.188174  0.213697 
0.190982  0.214075 
0.193791  0.214531 
0.196599  0.215062 
0.199408  0.215663 
0.202216  0.216331 
0.205025  0.217063 
0.207834  0.217853 
0.210642  0.218700 
0.213451  0.219597 
0.216259  0.220543 
0.219068  0.221533 
0.221876  0.222564 
0.224685  0.223631 
0.227493  0.224731 
0.230302  0.225860 
0.233110  0.227014 
0.235919  0.228190 
0.238728  0.229383 
0.241536  0.230591 
0.244345  0.231808 
0.247153  0.233033 
0.249962  0.234265 
0.252771  0.235504 
0.255579  0.236749 
0.258388  0.238000 
0.261196  0.239256 
0.264005  0.240517 
0.266813  0.241783 
0.269622  0.243052 
0.272430  0.244325 
0.275239  0.245600 
0.278048  0.246879 
0.280856  0.248159 
0.283665  0.249441 
0.286473  0.250725 
0.289282  0.252008 
0.292090  0.253293 
0.294899  0.254577 
0.297707  0.255860 
0.300516  0.257143 
0.303325  0.258424 
0.306133  0.259703 
0.308942  0.260979 
0.311750  0.262253 
0.314559  0.263523 
0.317367  0.264790 
0.320176  0.266052 
0.322985  0.267309 
0.325793  0.268561 
0.328602  0.269808 
0.331410  0.271049 
0.334219  0.272283 
0.337027  0.273510 
0.339836  0.274729 
0.342644  0.275941 
0.345453  0.277144 
0.348262  0.278339 
0.351070  0.279524 
0.353879  0.280700 
0.356687  0.281865 
0.359496  0.283020 
0.362304  0.284164 
0.365113  0.285296 
0.367922  0.286416 
0.370730  0.287524 
0.373539  0.288619 
0.376347  0.289700 
0.379156  0.290768 
0.381964  0.291821 
0.384773  0.292860 
0.387581  0.293883 
0.390390  0.294891 
0.393199  0.295883 
0.396007  0.296858 
0.398816  0.297816 
0.401624  0.298757 
0.404433  0.299680 
0.407241  0.300584 
0.410050  0.301470 
0.412859  0.302337 
0.415667  0.303183 
0.418476  0.304010 
0.421284  0.304816 
0.424093  0.305601 
0.426901  0.306364 
0.429710  0.307105 
0.432518  0.307824 
0.435327  0.308520 
0.438136  0.309192 
0.440944  0.309841 
0.443753  0.310468 
0.446561  0.311071 
0.449370  0.311654 
0.452178  0.312215 
0.454987  0.312757 
0.457795  0.313279 
0.460604  0.313783 
0.463413  0.314268 
0.466221  0.314736 
0.469030  0.315188 
0.471838  0.315624 
0.474647  0.316045 
0.477455  0.316452 
0.480264  0.316845 
0.483073  0.317225 
0.485881  0.317593 
0.488690  0.317949 
0.491498  0.318293 
0.494307  0.318626 
0.497115  0.318946 
0.499924  0.319254 
0.502732  0.319549 
0.505541  0.319832 
0.508350  0.320102 
0.511158  0.320359 
0.513967  0.320603 
0.516775  0.320833 
0.519584  0.321050 
0.522392  0.321253 
0.525201  0.321443 
0.528009  0.321618 
0.530818  0.321779 
0.533627  0.321925 
0.536435  0.322057 
0.539244  0.322174 
0.542052  0.322275 
0.544861  0.322361 
0.547669  0.322431 
0.550478  0.322485 
0.553287  0.322523 
0.556095  0.322544 
0.558904  0.322549 
0.561712  0.322536 
0.564521  0.322507 
0.567329  0.322461 
0.570138  0.322400 
0.572946  0.322323 
0.575755  0.322232 
0.578564  0.322126 
0.581372  0.322007 
0.584181  0.321874 
0.586989  0.321729 
0.589798  0.321572 
0.592606  0.321403 
0.595415  0.321223 
0.598223  0.321032 
0.601032  0.320831 
0.603841  0.320621 
0.606649  0.320402 
0.609458  0.320174 
0.612266  0.319938 
0.615075  0.319692 
0.617883  0.319435 
0.620692  0.319165 
0.623501  0.318881 
0.626309  0.318581 
0.629118  0.318264 
0.631926  0.317928 
0.634735  0.317571 
0.637543  0.317192 
0.640352  0.316789 
0.643161  0.316361 
0.645969  0.315905 
0.648778  0.315422 
0.651586  0.314908 
0.654395  0.314363 
0.657203  0.313784 
0.660012  0.313172 
0.662820  0.312529 
0.665629  0.311857 
0.668438  0.311159 
0.671246  0.310437 
0.674055  0.309694 
0.676863  0.308932 
0.679672  0.308154 
0.682480  0.307363 
0.685289  0.306560 
0.688097  0.305749 
0.690906  0.304931 
0.693715  0.304110 
0.696523  0.303288 
0.699332  0.302467 
0.702140  0.301650 
0.704949  0.300839 
0.707757  0.300038 
0.710566  0.299247 
0.713374  0.298471 
0.716183  0.297711 
0.718992  0.296969 
0.721800  0.296244 
0.724609  0.295535 
0.727417  0.294842 
0.730226  0.294164 
0.733034  0.293500 
0.735843  0.292850 
0.738652  0.292213 
0.741460  0.291587 
0.744269  0.290974 
0.747077  0.290371 
0.749886  0.289777 
0.752694  0.289193 
0.755503  0.288618 
0.758312  0.288050 
0.761120  0.287490 
0.763929  0.286936 
0.766737  0.286388 
0.769546  0.285845 
0.772354  0.285306 
0.775163  0.284770 
0.777971  0.284238 
0.780780  0.283707 
0.783589  0.283178 
0.786397  0.282650 
#  k=2
0.000000  0.219335 
0.002809  0.219828 
0.005617  0.220345 
0.008426  0.220880 
0.011234  0.221429 
0.014043  0.221986 
0.016851  0.222545 
0.019660  0.223102 
0.022468  0.223650 
0.025277  0.224184 
0.028086  0.224699 
0.030894  0.225190 
0.033703  0.225651 
0.036511  0.226077 
0.039320  0.226462 
0.042128  0.226801 
0.044937  0.227089 
0.047746  0.227320 
0.050554  0.227495 
0.053363  0.227620 
0.056171  0.227698 
0.058980  0.227736 
0.061788  0.227737 
0.064597  0.227707 
0.067405  0.227651 
0.070214  0.227574 
0.073023  0.227481 
0.075831  0.227376 
0.078640  0.227265 
0.081448  0.227152 
0.084257  0.227043 
0.087065  0.226939 
0.089874  0.226836 
0.092683  0.226731 
0.095491  0.226621 
0.098300  0.226503 
0.101108  0.226372 
0.103917  0.226225 
0.106725  0.226060 
0.109534  0.225872 
0.112342  0.225659 
0.115151  0.225416 
0.117960  0.225140 
0.120768  0.224828 
0.123577  0.224477 
0.126385  0.224082 
0.129194  0.223642 
0.132002  0.223162 
0.134811  0.222649 
0.137620  0.222113 
0.140428  0.221560 
0.143237  0.220999 
0.146045  0.220438 
0.148854  0.219886 
0.151662  0.219350 
0.154471  0.218839 
0.157279  0.218361 
0.160088  0.217923 
0.162896  0.217535 
0.165705  0.217203 
0.168514  0.216937 
0.171322  0.216744 
0.174131  0.216633 
0.176939  0.216611 
0.179748  0.216683 
0.182557  0.216843 
0.185365  0.217090 
0.188174  0.217419 
0.190982  0.217827 
0.193791  0.218311 
0.196599  0.218865 
0.199408  0.219488 
0.202216  0.220175 
0.205025  0.220922 
0.207834  0.221727 
0.210642  0.222584 
0.213451  0.223492 
0.216259  0.224446 
0.219068  0.225442 
0.221876  0.226477 
0.224685  0.227547 
0.227493  0.228649 
0.230302  0.229779 
0.233110  0.230933 
0.235919  0.232108 
0.238728  0.233300 
0.241536  0.234506 
0.244345  0.235721 
0.247153  0.236944 
0.249962  0.238174 
0.252771  0.239411 
0.255579  0.240653 
0.258388  0.241901 
0.261196  0.243155 
0.264005  0.244413 
0.266813  0.245676 
0.269622  0.246942 
0.272430  0.248212 
0.275239  0.249486 
0.278048  0.250761 
0.280856  0.252039 
0.283665  0.253319 
0.286473  0.254600 
0.289282  0.255882 
0.292090  0.257165 
0.294899  0.258448 
0.297707  0.259730 
0.300516  0.261011 
0.303325  0.262291 
0.306133  0.263570 
0.308942  0.264846 
0.311750  0.266120 
0.314559  0.267390 
0.317367  0.268658 
0.320176  0.269921 
0.322985  0.271180 
0.325793  0.272435 
0.328602  0.273684 
0.331410  0.274928 
0.334219  0.276166 
0.337027  0.277397 
0.339836  0.278621 
0.342644  0.279838 
0.345453  0.281048 
0.348262  0.282249 
0.351070  0.283441 
0.353879  0.284625 
0.356687  0.285799 
0.359496  0.286963 
0.362304  0.288116 
0.365113  0.289259 
0.367922  0.290391 
0.370730  0.291511 
0.373539  0.292619 
0.376347  0.293714 
0.379156  0.294797 
0.381964  0.295866 
0.384773  0.296921 
0.387581  0.297962 
0.390390  0.298989 
0.393199  0.300000 
0.396007  0.300996 
0.398816  0.301975 
0.401624  0.302939 
0.404433  0.303885 
0.407241  0.304814 
0.410050  0.305726 
0.412859  0.306619 
0.415667  0.307494 
0.418476  0.308349 
0.421284  0.309186 
0.424093  0.310002 
0.426901  0.310798 
0.429710  0.311573 
0.432518  0.312328 
0.435327  0.313060 
0.438136  0.313771 
0.440944  0.314459 
0.443753  0.315125 
0.446561  0.315770 
0.449370  0.316395 
0.452178  0.316999 
0.454987  0.317584 
0.457795  0.318149 
0.460604  0.318696 
0.463413  0.319225 
0.466221  0.319736 
0.469030  0.320231 
0.471838  0.320709 
0.474647  0.321171 
0.477455  0.321617 
0.480264  0.322049 
0.483073  0.322466 
0.485881  0.322870 
0.488690  0.323260 
0.491498  0.323637 
0.494307  0.324001 
0.497115  0.324352 
0.499924  0.324691 
0.502732  0.325017 
0.505541  0.325330 
0.508350  0.325631 
0.511158  0.325920 
0.513967  0.326196 
0.516775  0.326461 
0.519584  0.326714 
0.522392  0.326955 
0.525201  0.327184 
0.528009  0.327402 
0.530818  0.327608 
0.533627  0.327802 
0.536435  0.327983 
0.539244  0.328150 
0.542052  0.328303 
0.544861  0.328443 
0.547669  0.328567 
0.550478  0.328677 
0.553287  0.328771 
0.556095  0.328849 
0.558904  0.328910 
0.561712  0.328955 
0.564521  0.328983 
0.567329  0.328995 
0.570138  0.328991 
0.572946  0.328972 
0.575755  0.328938 
0.578564  0.328891 
0.581372  0.328830 
0.584181  0.328756 
0.586989  0.328669 
0.589798  0.328571 
0.592606  0.328462 
0.595415  0.328341 
0.598223  0.328211 
0.601032  0.328071 
0.603841  0.327922 
0.606649  0.327764 
0.609458  0.327599 
0.612266  0.327426 
0.615075  0.327243 
0.617883  0.327051 
0.620692  0.326847 
0.623501  0.326629 
0.626309  0.326397 
0.629118  0.326150 
0.631926  0.325884 
0.634735  0.325601 
0.637543  0.325296 
0.640352  0.324971 
0.643161  0.324622 
0.645969  0.324248 
0.648778  0.323849 
0.651586  0.323423 
0.654395  0.322968 
0.657203  0.322482 
0.660012  0.321967 
0.662820  0.321423 
0.665629  0.320852 
0.668438  0.320258 
0.671246  0.319642 
0.674055  0.319007 
0.676863  0.318354 
0.679672  0.317686 
0.682480  0.317006 
0.685289  0.316314 
0.688097  0.315614 
0.690906  0.314908 
0.693715  0.314198 
0.696523  0.313486 
0.699332  0.312774 
0.702140  0.312065 
0.704949  0.311361 
0.707757  0.310664 
0.710566  0.309976 
0.713374  0.309299 
0.716183  0.308637 
0.718992  0.307988 
0.721800  0.307355 
0.724609  0.306735 
0.727417  0.306128 
0.730226  0.305533 
0.733034  0.304951 
0.735843  0.304379 
0.738652  0.303819 
0.741460  0.303269 
0.744269  0.302728 
0.747077  0.302196 
0.749886  0.301673 
0.752694  0.301157 
0.755503  0.300648 
0.758312  0.300146 
0.761120  0.299650 
0.763929  0.299159 
0.766737  0.298673 
0.769546  0.298192 
0.772354  0.297714 
0.775163  0.297238 
0.777971  0.296765 
0.780780  0.296294 
0.783589  0.295825 
0.786397  0.295355 
#  k=3
0.000000  0.222085 
0.002809  0.222521 
0.005617  0.222978 
0.008426  0.223452 
0.011234  0.223936 
0.014043  0.224428 
0.016851  0.224922 
0.019660  0.225413 
0.022468  0.225897 
0.025277  0.226370 
0.028086  0.226825 
0.030894  0.227260 
0.033703  0.227668 
0.036511  0.228046 
0.039320  0.228389 
0.042128  0.228692 
0.044937  0.228950 
0.047746  0.229159 
0.050554  0.229320 
0.053363  0.229436 
0.056171  0.229513 
0.058980  0.229555 
0.061788  0.229565 
0.064597  0.229548 
0.067405  0.229509 
0.070214  0.229451 
0.073023  0.229380 
0.075831  0.229299 
0.078640  0.229213 
0.081448  0.229126 
0.084257  0.229043 
0.087065  0.228964 
0.089874  0.228886 
0.092683  0.228807 
0.095491  0.228723 
0.098300  0.228630 
0.101108  0.228527 
0.103917  0.228410 
0.106725  0.228274 
0.109534  0.228119 
0.112342  0.227939 
0.115151  0.227732 
0.117960  0.227496 
0.120768  0.227225 
0.123577  0.226919 
0.126385  0.226572 
0.129194  0.226184 
0.132002  0.225759 
0.134811  0.225304 
0.137620  0.224827 
0.140428  0.224337 
0.143237  0.223840 
0.146045  0.223344 
0.148854  0.222857 
0.151662  0.222387 
0.154471  0.221942 
0.157279  0.221528 
0.160088  0.221154 
0.162896  0.220828 
0.165705  0.220557 
0.168514  0.220349 
0.171322  0.220211 
0.174131  0.220152 
0.176939  0.220178 
0.179748  0.220294 
0.182557  0.220495 
0.185365  0.220779 
0.188174  0.221141 
0.190982  0.221580 
0.193791  0.222090 
0.196599  0.222669 
0.199408  0.223312 
0.202216  0.224018 
0.205025  0.224781 
0.207834  0.225600 
0.210642  0.226469 
0.213451  0.227387 
0.216259  0.228348 
0.219068  0.229350 
0.221876  0.230390 
0.224685  0.231463 
0.227493  0.232567 
0.230302  0.233698 
0.233110  0.234852 
0.235919  0.236027 
0.238728  0.237217 
0.241536  0.238421 
0.244345  0.239634 
0.247153  0.240855 
0.249962  0.242083 
0.252771  0.243317 
0.255579  0.244557 
0.258388  0.245802 
0.261196  0.247053 
0.264005  0.248309 
0.266813  0.249569 
0.269622  0.250833 
0.272430  0.252100 
0.275239  0.253371 
0.278048  0.254644 
0.280856  0.255920 
0.283665  0.257197 
0.286473  0.258476 
0.289282  0.259756 
0.292090  0.261037 
0.294899  0.262318 
0.297707  0.263599 
0.300516  0.264879 
0.303325  0.266159 
0.306133  0.267437 
0.308942  0.268713 
0.311750  0.269986 
0.314559  0.271258 
0.317367  0.272526 
0.320176  0.273791 
0.322985  0.275052 
0.325793  0.276308 
0.328602  0.277560 
0.331410  0.278807 
0.334219  0.280048 
0.337027  0.281284 
0.339836  0.282513 
0.342644  0.283735 
0.345453  0.284951 
0.348262  0.286158 
0.351070  0.287358 
0.353879  0.288549 
0.356687  0.289732 
0.359496  0.290905 
0.362304  0.292069 
0.365113  0.293222 
0.367922  0.294366 
0.370730  0.295498 
0.373539  0.296619 
0.376347  0.297729 
0.379156  0.298826 
0.381964  0.299911 
0.384773  0.300983 
0.387581  0.302041 
0.390390  0.303086 
0.393199  0.304117 
0.396007  0.305133 
0.398816  0.306134 
0.401624  0.307120 
0.404433  0.308090 
0.407241  0.309044 
0.410050  0.309981 
0.412859  0.310901 
0.415667  0.311804 
0.418476  0.312689 
0.421284  0.313555 
0.424093  0.314403 
0.426901  0.315232 
0.429710  0.316042 
0.432518  0.316831 
0.435327  0.317600 
0.438136  0.318349 
0.440944  0.319076 
0.443753  0.319783 
0.446561  0.320470 
0.449370  0.321136 
0.452178  0.321783 
0.454987  0.322411 
0.457795  0.323020 
0.460604  0.323610 
0.463413  0.324182 
0.466221  0.324736 
0.469030  0.325273 
0.471838  0.325793 
0.474647  0.326296 
0.477455  0.326782 
0.480264  0.327253 
0.483073  0.327707 
0.485881  0.328147 
0.488690  0.328571 
0.491498  0.328981 
0.494307  0.329377 
0.497115  0.329759 
0.499924  0.330128 
0.502732  0.330484 
0.505541  0.330828 
0.508350  0.331160 
0.511158  0.331480 
0.513967  0.331790 
0.516775  0.332089 
0.519584  0.332377 
0.522392  0.332656 
0.525201  0.332926 
0.528009  0.333187 
0.530818  0.333438 
0.533627  0.333678 
0.536435  0.333908 
0.539244  0.334126 
0.542052  0.334332 
0.544861  0.334524 
0.547669  0.334704 
0.550478  0.334869 
0.553287  0.335019 
0.556095  0.335154 
0.558904  0.335272 
0.561712  0.335374 
0.564521  0.335459 
0.567329  0.335528 
0.570138  0.335582 
0.572946  0.335621 
0.575755  0.335645 
0.578564  0.335655 
0.581372  0.335652 
0.584181  0.335637 
0.586989  0.335610 
0.589798  0.335571 
0.592606  0.335521 
0.595415  0.335460 
0.598223  0.335390 
0.601032  0.335311 
0.603841  0.335223 
0.606649  0.335127 
0.609458  0.335024 
0.612266  0.334913 
0.615075  0.334795 
0.617883  0.334667 
0.620692  0.334528 
0.623501  0.334377 
0.626309  0.334213 
0.629118  0.334035 
0.631926  0.333841 
0.634735  0.333630 
0.637543  0.333401 
0.640352  0.333152 
0.643161  0.332883 
0.645969  0.332591 
0.648778  0.332277 
0.651586  0.331938 
0.654395  0.331573 
0.657203  0.331180 
0.660012  0.330761 
0.662820  0.330316 
0.665629  0.329848 
0.668438  0.329358 
0.671246  0.328848 
0.674055  0.328320 
0.676863  0.327776 
0.679672  0.327218 
0.682480  0.326648 
0.685289  0.326068 
0.688097  0.325480 
0.690906  0.324885 
0.693715  0.324286 
0.696523  0.323684 
0.699332  0.323082 
0.702140  0.322481 
0.704949  0.321883 
0.707757  0.321290 
0.710566  0.320704 
0.713374  0.320128 
0.716183  0.319562 
0.718992  0.319008 
0.721800  0.318465 
0.724609  0.317934 
0.727417  0.317413 
0.730226  0.316902 
0.733034  0.316401 
0.735843  0.315909 
0.738652  0.315425 
0.741460  0.314950 
0.744269  0.314482 
0.747077  0.314022 
0.749886  0.313568 
0.752694  0.313120 
0.755503  0.312679 
0.758312  0.312242 
0.761120  0.311810 
0.763929  0.311383 
0.766737  0.310959 
0.769546  0.310539 
0.772354  0.310121 
0.775163  0.309706 
0.777971  0.309293 
0.780780  0.308882 
0.783589  0.308471 
0.786397  0.308061 
#  k=4
0.000000  0.224835 
0.002809  0.225215 
0.005617  0.225612 
0.008426  0.226023 
0.011234  0.226444 
0.014043  0.226870 
0.016851  0.227299 
0.019660  0.227725 
0.022468  0.228145 
0.025277  0.228555 
0.028086  0.228951 
0.030894  0.229330 
0.033703  0.229686 
0.036511  0.230016 
0.039320  0.230316 
0.042128  0.230583 
0.044937  0.230811 
0.047746  0.230998 
0.050554  0.231144 
0.053363  0.231253 
0.056171  0.231328 
0.058980  0.231373 
0.061788  0.231392 
0.064597  0.231389 
0.067405  0.231366 
0.070214  0.231329 
0.073023  0.231279 
0.075831  0.231223 
0.078640  0.231162 
0.081448  0.231100 
0.084257  0.231042 
0.087065  0.230988 
0.089874  0.230936 
0.092683  0.230882 
0.095491  0.230824 
0.098300  0.230758 
0.101108  0.230682 
0.103917  0.230594 
0.106725  0.230489 
0.109534  0.230365 
0.112342  0.230219 
0.115151  0.230049 
0.117960  0.229851 
0.120768  0.229623 
0.123577  0.229361 
0.126385  0.229063 
0.129194  0.228726 
0.132002  0.228356 
0.134811  0.227959 
0.137620  0.227542 
0.140428  0.227114 
0.143237  0.226680 
0.146045  0.226250 
0.148854  0.225828 
0.151662  0.225424 
0.154471  0.225044 
0.157279  0.224695 
0.160088  0.224386 
0.162896  0.224122 
0.165705  0.223911 
0.168514  0.223761 
0.171322  0.223678 
0.174131  0.223671 
0.176939  0.223745 
0.179748  0.223905 
0.182557  0.224147 
0.185365  0.224467 
0.188174  0.224863 
0.190982  0.225332 
0.193791  0.225869 
0.196599  0.226472 
0.199408  0.227137 
0.202216  0.227861 
0.205025  0.228641 
0.207834  0.229473 
0.210642  0.230354 
0.213451  0.231281 
0.216259  0.232250 
0.219068  0.233259 
0.221876  0.234303 
0.224685  0.235380 
0.227493  0.236485 
0.230302  0.237617 
0.233110  0.238771 
0.235919  0.239945 
0.238728  0.241134 
0.241536  0.242336 
0.244345  0.243548 
0.247153  0.244766 
0.249962  0.245992 
0.252771  0.247223 
0.255579  0.248461 
0.258388  0.249704 
0.261196  0.250952 
0.264005  0.252205 
0.266813  0.253462 
0.269622  0.254723 
0.272430  0.255988 
0.275239  0.257256 
0.278048  0.258527 
0.280856  0.259800 
0.283665  0.261075 
0.286473  0.262352 
0.289282  0.263630 
0.292090  0.264909 
0.294899  0.266189 
0.297707  0.267468 
0.300516  0.268747 
0.303325  0.270026 
0.306133  0.271303 
0.308942  0.272579 
0.311750  0.273853 
0.314559  0.275125 
0.317367  0.276394 
0.320176  0.277660 
0.322985  0.278923 
0.325793  0.280182 
0.328602  0.281436 
0.331410  0.282686 
0.334219  0.283931 
0.337027  0.285171 
0.339836  0.286405 
0.342644  0.287633 
0.345453  0.288854 
0.348262  0.290068 
0.351070  0.291275 
0.353879  0.292474 
0.356687  0.293665 
0.359496  0.294848 
0.362304  0.296021 
0.365113  0.297186 
0.367922  0.298340 
0.370730  0.299485 
0.373539  0.300619 
0.376347  0.301743 
0.379156  0.302855 
0.381964  0.303955 
0.384773  0.305044 
0.387581  0.306120 
0.390390  0.307183 
0.393199  0.308234 
0.396007  0.309270 
0.398816  0.310293 
0.401624  0.311301 
0.404433  0.312295 
0.407241  0.313273 
0.410050  0.314236 
0.412859  0.315183 
0.415667  0.316114 
0.418476  0.317028 
0.421284  0.317925 
0.424093  0.318805 
0.426901  0.319666 
0.429710  0.320510 
0.432518  0.321335 
0.435327  0.322141 
0.438136  0.322927 
0.440944  0.323694 
0.443753  0.324441 
0.446561  0.325169 
0.449370  0.325877 
0.452178  0.326567 
0.454987  0.327238 
0.457795  0.327890 
0.460604  0.328524 
0.463413  0.329139 
0.466221  0.329736 
0.469030  0.330316 
0.471838  0.330877 
0.474647  0.331421 
0.477455  0.331947 
0.480264  0.332457 
0.483073  0.332949 
0.485881  0.333424 
0.488690  0.333882 
0.491498  0.334325 
0.494307  0.334753 
0.497115  0.335166 
0.499924  0.335565 
0.502732  0.335952 
0.505541  0.336326 
0.508350  0.336689 
0.511158  0.337041 
0.513967  0.337383 
0.516775  0.337716 
0.519584  0.338041 
0.522392  0.338358 
0.525201  0.338668 
0.528009  0.338971 
0.530818  0.339267 
0.533627  0.339555 
0.536435  0.339833 
0.539244  0.340102 
0.542052  0.340360 
0.544861  0.340606 
0.547669  0.340840 
0.550478  0.341061 
0.553287  0.341267 
0.556095  0.341459 
0.558904  0.341634 
0.561712  0.341793 
0.564521  0.341936 
0.567329  0.342062 
0.570138  0.342173 
0.572946  0.342269 
0.575755  0.342351 
0.578564  0.342420 
0.581372  0.342475 
0.584181  0.342518 
0.586989  0.342550 
0.589798  0.342570 
0.592606  0.342580 
0.595415  0.342579 
0.598223  0.342570 
0.601032  0.342551 
0.603841  0.342524 
0.606649  0.342490 
0.609458  0.342449 
0.612266  0.342401 
0.615075  0.342346 
0.617883  0.342283 
0.620692  0.342209 
0.623501  0.342125 
0.626309  0.342029 
0.629118  0.341921 
0.631926  0.341798 
0.634735  0.341660 
0.637543  0.341506 
0.640352  0.341334 
0.643161  0.341144 
0.645969  0.340934 
0.648778  0.340704 
0.651586  0.340452 
0.654395  0.340177 
0.657203  0.339879 
0.660012  0.339556 
0.662820  0.339210 
0.665629  0.338844 
0.668438  0.338457 
0.671246  0.338053 
0.674055  0.337633 
0.676863  0.337198 
0.679672  0.336751 
0.682480  0.336291 
0.685289  0.335823 
0.688097  0.335346 
0.690906  0.334862 
0.693715  0.334374 
0.696523  0.333882 
0.699332  0.333389 
0.702140  0.332896 
0.704949  0.332404 
0.707757  0.331916 
0.710566  0.331433 
0.713374  0.330956 
0.716183  0.330487 
0.718992  0.330027 
0.721800  0.329576 
0.724609  0.329133 
0.727417  0.328698 
0.730226  0.328271 
0.733034  0.327851 
0.735843  0.327438 
0.738652  0.327032 
0.741460  0.326631 
0.744269  0.326236 
0.747077  0.325847 
0.749886  0.325463 
0.752694  0.325084 
0.755503  0.324709 
0.758312  0.324338 
0.761120  0.323970 
0.763929  0.323606 
0.766737  0.323245 
0.769546  0.322886 
0.772354  0.322529 
0.775163  0.322175 
0.777971  0.321821 
0.780780  0.321469 
0.783589  0.321118 
0.786397  0.320767 
#  k=5
0.000000  0.227585 
0.002809  0.227908 
0.005617  0.228245 
0.008426  0.228594 
0.011234  0.228951 
0.014043  0.229312 
0.016851  0.229675 
0.019660  0.230037 
0.022468  0.230393 
0.025277  0.230741 
0.028086  0.231078 
0.030894  0.231399 
0.033703  0.231703 
0.036511  0.231985 
0.039320  0.232243 
0.042128  0.232473 
0.044937  0.232673 
0.047746  0.232838 
0.050554  0.232969 
0.053363  0.233070 
0.056171  0.233143 
0.058980  0.233192 
0.061788  0.233220 
0.064597  0.233229 
0.067405  0.233224 
0.070214  0.233206 
0.073023  0.233179 
0.075831  0.233146 
0.078640  0.233110 
0.081448  0.233074 
0.084257  0.233042 
0.087065  0.233013 
0.089874  0.232986 
0.092683  0.232957 
0.095491  0.232925 
0.098300  0.232886 
0.101108  0.232838 
0.103917  0.232778 
0.106725  0.232703 
0.109534  0.232611 
0.112342  0.232500 
0.115151  0.232366 
0.117960  0.232207 
0.120768  0.232020 
0.123577  0.231803 
0.126385  0.231553 
0.129194  0.231268 
0.132002  0.230952 
0.134811  0.230613 
0.137620  0.230257 
0.140428  0.229891 
0.143237  0.229521 
0.146045  0.229155 
0.148854  0.228800 
0.151662  0.228461 
0.154471  0.228147 
0.157279  0.227863 
0.160088  0.227617 
0.162896  0.227415 
0.165705  0.227265 
0.168514  0.227172 
0.171322  0.227145 
0.174131  0.227189 
0.176939  0.227312 
0.179748  0.227516 
0.182557  0.227798 
0.185365  0.228156 
0.188174  0.228585 
0.190982  0.229084 
0.193791  0.229648 
0.196599  0.230275 
0.199408  0.230962 
0.202216  0.231704 
0.205025  0.232500 
0.207834  0.233346 
0.210642  0.234239 
0.213451  0.235176 
0.216259  0.236153 
0.219068  0.237167 
0.221876  0.238216 
0.224685  0.239296 
0.227493  0.240404 
0.230302  0.241536 
0.233110  0.242690 
0.235919  0.243863 
0.238728  0.245051 
0.241536  0.246252 
0.244345  0.247461 